 CRYSTAL
 PRIMVEC
    -0.108001229    -8.457747449    0.044211706
    8.777003539    0.026333850    0.068952706
    -0.086088846    0.096522750    13.809882754
PRIMCOORD
       30        1
Al      8.661405397   -4.135907818   2.351770197
Al      4.179410501   -8.347734234   4.647507045
P       -0.014678975   -4.166070327   9.623651140
P       4.283290996   -8.328641213   11.101168812
P       0.028648880   -0.006424698   6.971605628
P       4.327362452   -4.072656215   13.751006981
S       -0.032136577   -6.736644782   5.898100924
S       0.180559425   -1.650612093   5.738454549
S       2.494253399   -3.983708799   12.813177453
S       5.843782272   -4.026866508   12.387479887
S       4.467722239   -2.495553613   1.176828577
S       4.513657611   -5.894714229   1.076438386
S       1.655124494   -0.049213424   8.237818034
S       7.036423308   -0.020141145   8.116534988
S       8.609527315   -5.977073926   0.950007567
S       8.481875491   -2.290627318   1.046606829
S       1.830156113   -4.193750833   8.680009242
S       7.182961792   -4.170380417   8.381677554
S       4.287421305   -1.779719141   5.927056630
S       4.033062581   -6.519992394   5.964588699
S       2.635452800   0.032398134   12.147674341
S       6.139791149   0.133796684   12.184278851
S       0.007714833   -2.570937945   10.927837551
S       8.579510443   -5.863511360   10.864109545
S       6.885219024   -4.164495917   3.811241035
S       1.707025076   -4.336123507   3.588849743
S       4.212741590   -6.667364403   9.912273040
S       4.487866542   -1.583323762   9.882744374
S       6.120942034   -8.372972713   3.474905034
S       2.490718173   -8.387255583   3.124695380
BEGIN_BLOCK_DATAGRID_3D
3D_PWSCF
DATAGRID_3D_UNKNOWN
        44         45         71
  0.000000  0.000000  0.000000
    -0.108001229    -8.457747449    0.044211706
    8.777003539    0.026333850    0.068952706
    -0.086088846    0.096522750    13.809882754
        0.0001849041        0.0000882625        0.0000512574        0.0000848914        0.0001828461        0.0003264104
        0.0004703206        0.0005575624        0.0005805776        0.0005750049        0.0005283201        0.0004200778
        0.0003072813        0.0003240330        0.0007241539        0.0020331635        0.0049694765        0.0100320190
        0.0165527598        0.0225212776        0.0255494870        0.0243666808        0.0193742188        0.0125236824
        0.0063699451        0.0024802554        0.0007253772        0.0001587115        0.0000289185        0.0000120746
        0.0000118380        0.0000095858        0.0000051115        0.0000017513        0.0000003843        0.0000000530
        0.0000009837        0.0000101950        0.0000535561        0.0001455988        0.0002690636        0.0003405888
        0.0002985700        0.0001849041        0.0004203843        0.0002065714        0.0001185820        0.0001901838
        0.0004201529        0.0007914099        0.0012463292        0.0016833755        0.0020312000        0.0022310530
        0.0021253420        0.0016616760        0.0010720274        0.0006664356        0.0006650561        0.0013515376
        0.0031039590        0.0062114320        0.0102946795        0.0141516604        0.0162451813        0.0156468693
        0.0125095943        0.0080987379        0.0041210021        0.0016122970        0.0004852120        0.0001258489
        0.0000492827        0.0000485008        0.0000543517        0.0000453396        0.0000262475        0.0000111437
        0.0000048815        0.0000038329        0.0000068387        0.0000263000        0.0001160826        0.0003067978
        0.0005690028        0.0007322242        0.0006578515        0.0004203843        0.0006964254        0.0003532329
        0.0002059990        0.0003302309        0.0007660895        0.0015643482        0.0027515100        0.0041997858
        0.0055774782        0.0063986463        0.0061251599        0.0047281705        0.0029328205        0.0015403099
        0.0008506746        0.0008793438        0.0016548940        0.0032254607        0.0053702772        0.0074719143
        0.0087044919        0.0085094529        0.0068849750        0.0044942428        0.0023071895        0.0009256819
        0.0003114427        0.0001291002        0.0001147401        0.0001538623        0.0001838256        0.0001675052
        0.0001200290        0.0000777233        0.0000530349        0.0000404233        0.0000406305        0.0000717764
        0.0002097007        0.0004977797        0.0008952092        0.0011533820        0.0010563171        0.0006964254
        0.0008614626        0.0004563322        0.0002946698        0.0005153698        0.0012788158        0.0028536512
        0.0055655896        0.0092880798        0.0129898297        0.0150940296        0.0143404304        0.0109210448
        0.0066249221        0.0032817716        0.0014501349        0.0007751559        0.0008443107        0.0014313247
        0.0023357030        0.0032600772        0.0038468099        0.0038386144        0.0031790525        0.0021206042
        0.0011165666        0.0004799436        0.0002212445        0.0002007766        0.0003043098        0.0004611104
        0.0005740213        0.0005750438        0.0004983715        0.0004051767        0.0003093144        0.0002169870
        0.0001611515        0.0001772648        0.0003307061        0.0006519976        0.0010851239        0.0013686206
        0.0012674964        0.0008614626        0.0008532900        0.0004923129        0.0004175569        0.0008851960
        0.0023162447        0.0054307095        0.0110831767        0.0190523140        0.0269304596        0.0311540016
        0.0293322634        0.0222052392        0.0134296408        0.0066118490        0.0028246451        0.0011818842
        0.0006360839        0.0006210914        0.0008580028        0.0011580198        0.0013741313        0.0014075543
        0.0012061743        0.0008320259        0.0004631138        0.0002563074        0.0002763073        0.0005269525
        0.0009878711        0.0015627910        0.0020367440        0.0022479756        0.0021892902        0.0019060720
        0.0014514535        0.0009578155        0.0006005435        0.0004660532        0.0005450748        0.0007877196
        0.0011064761        0.0013075672        0.0012106364        0.0008532900        0.0007259227        0.0004883965
        0.0006272327        0.0016203676        0.0043531809        0.0103060546        0.0210584444        0.0361009193
        0.0508844301        0.0587543816        0.0554528633        0.0424747395        0.0263552594        0.0135419937
        0.0061136253        0.0025927765        0.0010696875        0.0004792883        0.0003227328        0.0003372991
        0.0003863401        0.0004063454        0.0003625610        0.0002645749        0.0001920037        0.0002763235
        0.0007224673        0.0017721881        0.0035802783        0.0059624978        0.0082555941        0.0096594996
        0.0096863165        0.0083819237        0.0062424763        0.0039945499        0.0022811354        0.0013503480
        0.0010242098        0.0010056735        0.0010796240        0.0011127447        0.0009971289        0.0007259227
        0.0005527495        0.0004756751        0.0009414278        0.0027894120        0.0076276357        0.0181341944
        0.0368560612        0.0628161001        0.0885269375        0.1027928300        0.0981826362        0.0769439619
        0.0497084279        0.0271295316        0.0131121694        0.0058307410        0.0023607130        0.0008422666
        0.0002780808        0.0001182784        0.0000904073        0.0000898352        0.0000861546        0.0000926333
        0.0002139760        0.0007275418        0.0022066673        0.0054651172        0.0111218917        0.0188240429
        0.0266465703        0.0316944933        0.0318715390        0.0273173906        0.0200548411        0.0126204624
        0.0069179849        0.0035837560        0.0020619605        0.0014461108        0.0011432209        0.0009442980
        0.0007591000        0.0005527495        0.0003831223        0.0004666717        0.0013073257        0.0042136660
        0.0117261737        0.0281297221        0.0572114044        0.0974959539        0.1379683920        0.1616068052
        0.1565978677        0.1258027288        0.0845884283        0.0486696412        0.0247275527        0.0113157107
        0.0046014414        0.0016069353        0.0004724408        0.0001244408        0.0000379584        0.0000194337
        0.0000289045        0.0001086611        0.0004878653        0.0017938367        0.0053152554        0.0129822282
        0.0263619840        0.0448694663        0.0641182292        0.0767389639        0.0770945412        0.0655860095
        0.0476679903        0.0297022993        0.0159814712        0.0077582592        0.0037989818        0.0021033734
        0.0012972161        0.0008414824        0.0005561207        0.0003831223        0.0002487459        0.0004650020
        0.0016121850        0.0054188225        0.0153244442        0.0372804795        0.0764605905        0.1310493350
        0.1865793351        0.2202450338        0.2159984094        0.1772283140        0.1231730821        0.0737840357
        0.0388013060        0.0180802171        0.0073841602        0.0025825819        0.0007641075        0.0001984664
        0.0000487504        0.0000134191        0.0000411343        0.0002246445        0.0009929629        0.0034844228
        0.0099793051        0.0239589127        0.0482575300        0.0819050681        0.1170523232        0.1400591260
        0.1403917040        0.1188757263        0.0858653134        0.0531677867        0.0283143680        0.0132547712
        0.0058481953        0.0027052988        0.0013647124        0.0007208296        0.0003838521        0.0002487459
        0.0001581870        0.0004482970        0.0017105742        0.0058524992        0.0168172387        0.0415536720
        0.0861034869        0.1484164294        0.2120334405        0.2512270003        0.2483047950        0.2070815356
        0.1477082739        0.0912475480        0.0492913124        0.0233745457        0.0096414911        0.0034025707
        0.0010240188        0.0002729634        0.0000666626        0.0000192927        0.0000735064        0.0003754706
        0.0015493356        0.0052130367        0.0145412466        0.0343516605        0.0684212424        0.1152464230
        0.1639818631        0.1957783604        0.1959323290        0.1655121163        0.1191807665        0.0736321014
        0.0390900943        0.0179485738        0.0073754019        0.0029331464        0.0012134763        0.0005278221
        0.0002329745        0.0001581870        0.0000975530        0.0003793238        0.0015112582        0.0052422124
        0.0153169968        0.0382792803        0.0797280519        0.1375668830        0.1964602222        0.2330177484
        0.2316819563        0.1959714157        0.1429381788        0.0906890405        0.0502887497        0.0243951292
        0.0102527257        0.0036820439        0.0011321164        0.0003078611        0.0000739572        0.0000235348
        0.0001005745        0.0004791782        0.0018584396        0.0060310194        0.0164519718        0.0382764889
        0.0752758470        0.1254645210        0.1772115413        0.2107878519        0.2106565526        0.1778240472
        0.1280860290        0.0794218570        0.0424219523        0.0194277693        0.0076869896        0.0027420006
        0.0009359490        0.0003231894        0.0001167441        0.0000975530        0.0000625226        0.0002731635
        0.0011129643        0.0039010730        0.0115043264        0.0287323297        0.0595411336        0.1022142383
        0.1455825771        0.1729648678        0.1733980107        0.1490989089        0.1113790849        0.0727638794
        0.0416670614        0.0208610012        0.0090118200        0.0033153706        0.0010443496        0.0002883496
        0.0000674419        0.0000225631        0.0001031517        0.0004687605        0.0017237692        0.0054164920
        0.0144746087        0.0332205540        0.0645535693        0.1064046618        0.1489474635        0.1762438025
        0.1757975353        0.1485218611        0.1075428342        0.0675546679        0.0368238487        0.0172130392
        0.0068633638        0.0023859028        0.0007428543        0.0002145305        0.0000634824        0.0000625226
        0.0000941970        0.0002245161        0.0007741253        0.0025495884        0.0072751953        0.0176311775
        0.0357004561        0.0604865496        0.0858312140        0.1025215449        0.1042786701        0.0917851288
        0.0707625343        0.0481081719        0.0288557558        0.0151215524        0.0067756556        0.0025571860
        0.0008186261        0.0002257685        0.0000508523        0.0000165437        0.0000788418        0.0003508775
        0.0012390540        0.0037897002        0.0099374200        0.0225649181        0.0434444732        0.0709382544
        0.0984257601        0.1157617037        0.1152206834        0.0976552697        0.0715891423        0.0461587199
        0.0261815234        0.0128763420        0.0054814937        0.0020841715        0.0007347259        0.0002591283
        0.0001124283        0.0000941970        0.0004549942        0.0004729655        0.0007638134        0.0017420126
        0.0042041614        0.0092151351        0.0175562766        0.0288762095        0.0406904236        0.0490895107
        0.0511133821        0.0465604476        0.0375597905        0.0270757573        0.0173766061        0.0096853337
        0.0045232784        0.0017356366        0.0005512716        0.0001467708        0.0000311394        0.0000090348
        0.0000449924        0.0002006068        0.0006897671        0.0020670924        0.0053347212        0.0120406217
        0.0230797430        0.0374937778        0.0517152797        0.0605457739        0.0602225998        0.0514082111
        0.0385160768        0.0259371850        0.0157146126        0.0084591991        0.0041157776        0.0019456056
        0.0010023447        0.0006473635        0.0005214386        0.0004549942        0.0019575336        0.0016254545
        0.0014195331        0.0016458283        0.0026130924        0.0045332998        0.0075535760        0.0116185632
        0.0160339081        0.0195413658        0.0209919108        0.0200347892        0.0172172901        0.0134651502
        0.0094231644        0.0056209562        0.0027162779        0.0010392627        0.0003170592        0.0000779446
        0.0000150186        0.0000036002        0.0000193273        0.0000873872        0.0002954787        0.0008734084
        0.0022309976        0.0050401211        0.0096843033        0.0157601050        0.0217420025        0.0254588308
        0.0254144789        0.0219777314        0.0170194364        0.0122249664        0.0081680503        0.0050480646
        0.0030744227        0.0021586658        0.0019579826        0.0020728738        0.0021390170        0.0019575336
        0.0073721949        0.0057627031        0.0039289871        0.0026546045        0.0022330140        0.0024940060
        0.0032433913        0.0043697864        0.0056940330        0.0068959176        0.0076123946        0.0076480390
        0.0070969962        0.0061060380        0.0046605170        0.0029320506        0.0014359250        0.0005355583
        0.0001528133        0.0000333094        0.0000055839        0.0000010373        0.0000062452        0.0000285979
        0.0000953534        0.0002796573        0.0007140132        0.0016331255        0.0031787582        0.0052348489
        0.0072873104        0.0085938082        0.0086578826        0.0076309017        0.0061836029        0.0048541537
        0.0037198683        0.0028793869        0.0027190757        0.0035362390        0.0051950899        0.0069657702
        0.0078759677        0.0073721949        0.0246501781        0.0186065058        0.0114727628        0.0060176759
        0.0030511827        0.0018913131        0.0016786412        0.0018688582        0.0021909087        0.0025036223
        0.0027109806        0.0027730295        0.0027311401        0.0025449217        0.0020646826        0.0013302180
        0.0006440337        0.0002298489        0.0000603569        0.0000112657        0.0000015607        0.0000001901
        0.0000014027        0.0000065901        0.0000219888        0.0000651369        0.0001701777        0.0004028315
        0.0008076943        0.0013631482        0.0019298037        0.0023004227        0.0023440220        0.0021150395
        0.0018204867        0.0016207160        0.0016076132        0.0021829705        0.0043198946        0.0089612973
        0.0158881463        0.0228223902        0.0264080519        0.0246501781        0.0680536669        0.0500895567
        0.0295125448        0.0140594038        0.0056394437        0.0021836889        0.0011469444        0.0009732579
        0.0010038762        0.0010336366        0.0010229995        0.0009893336        0.0009749044        0.0009415518
        0.0007847782        0.0005052917        0.0002380952        0.0000805612        0.0000193386        0.0000029645
        0.0000003083        0.0000000178        0.0000002215        0.0000010138        0.0000033071        0.0000099205
        0.0000276110        0.0000704108        0.0001507823        0.0002682883        0.0003942472        0.0004806096
        0.0004975665        0.0004635885        0.0004436296        0.0005413426        0.0011341840        0.0034776688
        0.0101671220        0.0238269837        0.0439330617        0.0639219584        0.0738595392        0.0680536669
        0.1534332113        0.1111239782        0.0639919909        0.0293474204        0.0108258937        0.0033550344
        0.0010636065        0.0005446214        0.0004584949        0.0004261174        0.0003789208        0.0003275115
        0.0002999125        0.0002845565        0.0002371884        0.0001508441        0.0000688591        0.0000220585
        0.0000048559        0.0000005909        0.0000000428        0.0000000003        0.0000000000        0.0000000000
        0.0000000480        0.0000004889        0.0000025411        0.0000084843        0.0000208846        0.0000400194
        0.0000610012        0.0000752064        0.0000780874        0.0000799204        0.0001237280        0.0004095838
        0.0018779405        0.0074451944        0.0229939026        0.0545348334        0.1008724085        0.1466064623
        0.1683864435        0.1534332113        0.2796111370        0.2001877670        0.1137115250        0.0512804501
        0.0184545422        0.0053823898        0.0013465902        0.0003749940        0.0001883762        0.0001473244
        0.0001195906        0.0000921768        0.0000747832        0.0000660127        0.0000532104        0.0000327444
        0.0000142752        0.0000042927        0.0000008704        0.0000000811        0.0000000047        0.0000000000
        0.0000000000        0.0000000000        0.0000000000        0.0000000047        0.0000001168        0.0000005546
        0.0000019485        0.0000045287        0.0000077245        0.0000097019        0.0000094412        0.0000210299
        0.0001165006        0.0006856079        0.0035158051        0.0140460616        0.0431822696        0.1019913877
        0.1879098032        0.2716957103        0.3097908257        0.2796111370        0.4119873009        0.2928486874
        0.1650666040        0.0738980425        0.0264702616        0.0076866272        0.0018327624        0.0003801535
        0.0000910622        0.0000419104        0.0000290978        0.0000194240        0.0000129411        0.0000100077
        0.0000078726        0.0000048763        0.0000021202        0.0000006230        0.0000001221        0.0000000084
        0.0000000004        0.0000000000        0.0000000000        0.0000000000        0.0000000000        0.0000000000
        0.0000000000        0.0000000549        0.0000006252        0.0000021269        0.0000046483        0.0000065592
        0.0000061104        0.0000244936        0.0001777886        0.0010682586        0.0054431810        0.0215564231
        0.0657783079        0.1543549243        0.2825069725        0.4057488568        0.4595607351        0.4119873009
        0.4916066704        0.3478444347        0.1951053000        0.0869702246        0.0311194877        0.0090709576
        0.0021583807        0.0004232114        0.0000770658        0.0000220561        0.0000117571        0.0000055408
        0.0000020261        0.0000007227        0.0000003421        0.0000001923        0.0000000815        0.0000000228
        0.0000000041        0.0000000000        0.0000000000        0.0000000000        0.0000000000        0.0000000000
        0.0000000000        0.0000000000        0.0000000000        0.0000001457        0.0000012142        0.0000039428
        0.0000082362        0.0000110865        0.0000096489        0.0000307460        0.0002180291        0.0013117768
        0.0067612086        0.0267698591        0.0811897998        0.1890508339        0.3431397291        0.4892557525
        0.5509658761        0.4916066704        0.4745179584        0.3346234462        0.1870044325        0.0830575717
        0.0296475782        0.0086320289        0.0020472336        0.0004061530        0.0000908685        0.0000425233
        0.0000259538        0.0000111569        0.0000031240        0.0000005718        0.0000000363        0.0000000006
        0.0000000000        0.0000000000        0.0000000000        0.0000000000        0.0000000000        0.0000000000
        0.0000000000        0.0000000000        0.0000000000        0.0000000000        0.0000000000        0.0000002801
        0.0000018964        0.0000058733        0.0000116852        0.0000149624        0.0000124213        0.0000324933
        0.0002150194        0.0012965869        0.0068091793        0.0269966294        0.0812894888        0.1875155881
        0.3370146138        0.4766895875        0.5338524139        0.4745179584        0.3696991841        0.2600134631
        0.1449476597        0.0642021029        0.0228335652        0.0066055607        0.0015579125        0.0003406653
        0.0001441735        0.0001265167        0.0000962430        0.0000500341        0.0000177428        0.0000043723
        0.0000006958        0.0000000568        0.0000000017        0.0000000000        0.0000000000        0.0000000000
        0.0000000000        0.0000000000        0.0000000000        0.0000000000        0.0000000000        0.0000000000
        0.0000002022        0.0000021997        0.0000082068        0.0000193890        0.0000302000        0.0000310060
        0.0000214865        0.0000356824        0.0001909758        0.0010899137        0.0056492755        0.0221678209
        0.0659598176        0.1504403994        0.2674361713        0.3749750815        0.4174668560        0.3696991841
        0.2323578751        0.1631425946        0.0908909449        0.0402336450        0.0142666905        0.0040934293
        0.0009760425        0.0002924167        0.0002667903        0.0003183633        0.0002813744        0.0001761404
        0.0000819731        0.0000314971        0.0000116786        0.0000043917        0.0000014302        0.0000003506
        0.0000000532        0.0000000000        0.0000000000        0.0000000000        0.0000000000        0.0000000000
        0.0000000000        0.0000000191        0.0000009187        0.0000079753        0.0000289414        0.0000675353
        0.0001069135        0.0001175481        0.0000954259        0.0000898142        0.0002088788        0.0008766391
        0.0040110840        0.0149916195        0.0434923968        0.0976496382        0.1714445074        0.2380753713
        0.2633398221        0.2323578751        0.1181227544        0.0829319733        0.0463168542        0.0205688685
        0.0073025703        0.0021163198        0.0006224078        0.0004672433        0.0007107934        0.0009183355
        0.0008731155        0.0006150741        0.0003342749        0.0001523894        0.0000660013        0.0000280281
        0.0000100831        0.0000027333        0.0000004875        0.0000000316        0.0000000000        0.0000000000
        0.0000000000        0.0000000000        0.0000000000        0.0000002032        0.0000046435        0.0000311803
        0.0001096159        0.0002554084        0.0004250413        0.0005270862        0.0005229057        0.0004710311
        0.0005002717        0.0009169207        0.0027353324        0.0087112453        0.0236843121        0.0516277523
        0.0891087032        0.1223248850        0.1343257817        0.1181227544        0.0487790741        0.0343307727
        0.0193142304        0.0086831578        0.0032123283        0.0012527121        0.0010954158        0.0017725438
        0.0027284911        0.0033757968        0.0032551398        0.0024403190        0.0014439212        0.0007035686
        0.0003042775        0.0001229809        0.0000437888        0.0000123750        0.0000024755        0.0000002723
        0.0000000000        0.0000000000        0.0000000000        0.0000000000        0.0000002919        0.0000030965
        0.0000282947        0.0001422203        0.0004676909        0.0010893763        0.0019067829        0.0025917448
        0.0028455664        0.0026109968        0.0021413575        0.0019110150        0.0025052941        0.0049980069
        0.0112051629        0.0226623053        0.0378724260        0.0511301029        0.0556419320        0.0487790741
        0.0163404942        0.0115756273        0.0066441425        0.0032150560        0.0018001412        0.0022266154
        0.0042398205        0.0074677418        0.0109316116        0.0129984871        0.0123896369        0.0094149091
        0.0057233666        0.0028317109        0.0011837655        0.0004398991        0.0001478370        0.0000423168
        0.0000093254        0.0000013870        0.0000000636        0.0000000000        0.0000000000        0.0000002695
        0.0000049692        0.0000356406        0.0001886503        0.0007272434        0.0021291793        0.0047810538
        0.0084208300        0.0117600533        0.0131879648        0.0119860450        0.0090421630        0.0060996251
        0.0043069767        0.0039853264        0.0053360145        0.0086401793        0.0133156508        0.0174220323
        0.0187028115        0.0163404942        0.0043841904        0.0031690294        0.0020117382        0.0016192851
        0.0028197691        0.0066146383        0.0138257168        0.0239807208        0.0341180679        0.0395735134
        0.0371240169        0.0280468282        0.0170830605        0.0084606837        0.0034819939        0.0012456213
        0.0004083933        0.0001207401        0.0000294135        0.0000052961        0.0000004773        0.0000003263
        0.0000027913        0.0000119997        0.0000547143        0.0002268313        0.0008716191        0.0028118201
        0.0074548364        0.0159427398        0.0274864308        0.0381031619        0.0424719452        0.0381149053
        0.0278935413        0.0173101058        0.0097829954        0.0055413991        0.0036300380        0.0033200459
        0.0039762126        0.0048000875        0.0050301039        0.0043841904        0.0009375011        0.0007578899
        0.0008718178        0.0021049818        0.0062177678        0.0158422098        0.0331744542        0.0569153037
        0.0798056839        0.0911780282        0.0844330731        0.0632198301        0.0383455781        0.0189700585
        0.0077938149        0.0027855968        0.0009298243        0.0002900612        0.0000763118        0.0000150040
        0.0000018012        0.0000019250        0.0000140782        0.0000592817        0.0002270489        0.0007892687
        0.0026055270        0.0075749767        0.0187965541        0.0386703916        0.0652070112        0.0892816452
        0.0986329516        0.0876910841        0.0632808313        0.0380732518        0.0199123588        0.0093953820
        0.0041308467        0.0019070781        0.0012093597        0.0011046911        0.0010776964        0.0009375011
        0.0001623244        0.0002772858        0.0009702949        0.0036164002        0.0113686223        0.0290527461
        0.0605841822        0.1031306531        0.1431291292        0.1616370082        0.1480271306        0.1098385905
        0.0662504581        0.0327431953        0.0135227812        0.0049038110        0.0016822551        0.0005456415
        0.0001492765        0.0000302715        0.0000043605        0.0000067992        0.0000420466        0.0001653214
        0.0005745946        0.0018181664        0.0055187252        0.0150208082        0.0355126962        0.0706722003
        0.1165105115        0.1571944378        0.1719160031        0.1516713345        0.1086283762        0.0645180567
        0.0327197379        0.0144089403        0.0054766067        0.0018085945        0.0005722990        0.0002443328
        0.0001753329        0.0001623244        0.0000481866        0.0002803676        0.0013424453        0.0051614637
        0.0161761483        0.0412293543        0.0856714035        0.1448841807        0.1993151196        0.2227973897
        0.2019415639        0.1484639458        0.0889666415        0.0439360246        0.0183268244        0.0068139875
        0.0024186875        0.0008079408        0.0002248339        0.0000457173        0.0000075630        0.0000153333
        0.0000839334        0.0003135329        0.0010216708        0.0030360231        0.0087043061        0.0225411878